# vtk DataFile Version 4.0
vtk output
ASCII
DATASET UNSTRUCTURED_GRID
POINTS 1374 float
1.9728513e-02 1.0000000e-01 1.5355318e-02 
2.0929161e-02 1.0000000e-01 1.3673704e-02 
1.8393097e-02 1.0000000e-01 1.6932039e-02 
2.0464677e-02 9.8178446e-02 1.4359560e-02 
1.9078398e-02 9.7959004e-02 1.6155949e-02 
2.1391483e-02 9.8348640e-02 1.2938487e-02 
1.7760037e-02 9.8241426e-02 1.7594917e-02 
2.1986844e-02 1.0000000e-01 1.1898685e-02 
1.6932039e-02 1.0000000e-01 1.8393097e-02 
2.0915419e-02 9.5656544e-02 1.3694717e-02 
1.8085599e-02 9.5289126e-02 1.7260101e-02 
1.6155949e-02 9.7959004e-02 1.9078398e-02 
2.2461290e-02 9.7908221e-02 1.0976814e-02 
2.2894334e-02 1.0000000e-01 1.0042385e-02 
1.5355318e-02 1.0000000e-01 1.9728513e-02 
1.4609819e-02 9.8239876e-02 2.0286772e-02 
2.3250755e-02 9.8202243e-02 9.1870772e-03 
2.3069100e-02 9.5268324e-02 9.6341390e-03 
1.4956995e-02 9.5308959e-02 2.0032182e-02 
2.3645431e-02 1.0000000e-01 8.1174867e-03 
1.3673704e-02 1.0000000e-01 2.0929161e-02 
1.9700643e-02 9.1553904e-02 1.5391059e-02 
1.6938388e-02 9.1563754e-02 1.8387252e-02 
2.1981228e-02 9.1548629e-02 1.1909055e-02 
1.2795555e-02 9.7931430e-02 2.1477284e-02 
2.3962302e-02 9.7834684e-02 7.1279760e-03 
2.4235006e-02 1.0000000e-01 6.1371373e-03 
1.1898685e-02 1.0000000e-01 2.1986844e-02 
1.1067355e-02 9.8221079e-02 2.2416817e-02 
2.4447821e-02 9.8132089e-02 5.2253273e-03 
1.1452864e-02 9.5298275e-02 2.2222329e-02 
1.3739057e-02 9.1519527e-02 2.0886319e-02 
2.4346204e-02 9.5101416e-02 5.6799925e-03 
2.3609661e-02 9.1359124e-02 8.2209436e-03 
2.0947151e-02 8.8126481e-02 1.3646130e-02 
1.8375512e-02 8.8094242e-02 1.6951121e-02 
2.4659032e-02 1.0000000e-01 4.1148649e-03 
1.0042385e-02 1.0000000e-01 2.2894334e-02 
1.5277248e-02 8.8146798e-02 1.9789031e-02 
9.0839490e-03 9.7875684e-02 2.3291240e-02 
2.4808895e-02 9.7724333e-02 3.0852382e-03 
2.2919597e-02 8.7665647e-02 9.9845929e-03 
8.1174867e-03 1.0000000e-01 2.3645431e-02 
2.4914613e-02 1.0000000e-01 2.0644837e-03 
2.0128729e-02 8.5345976e-02 1.4826809e-02 
2.4598569e-02 9.1320299e-02 4.4621089e-03 
8.0222525e-03 9.5345229e-02 2.3677912e-02 
2.4907902e-02 9.4418496e-02 2.1439351e-03 
9.3784528e-03 9.1842830e-02 2.3174223e-02 
7.1285507e-03 9.7833425e-02 2.3962133e-02 
2.2209190e-02 8.5202016e-02 1.1478321e-02 
2.4985017e-02 9.7450607e-02 8.6538401e-04 
1.1819012e-02 8.8198848e-02 2.2029774e-02 
2.4173990e-02 8.7875277e-02 6.3732439e-03 
1.6849181e-02 8.4656224e-02 1.8469032e-02 
6.1371373e-03 1.0000000e-01 2.4235006e-02 
2.5000000e-02 1.0000000e-01 0.0000000e+00 
2.4978980e-02 9.7654350e-02 -1.0249380e-03 
2.3839088e-02 8.4861226e-02 7.5297998e-03 
5.0809514e-03 9.6845679e-02 2.4478234e-02 
2.4978315e-02 9.4900593e-02 -1.0410402e-03 
2.4987279e-02 9.0855196e-02 7.9743162e-04 
1.8660579e-02 8.2026042e-02 1.6636791e-02 
4.1148649e-03 1.0000000e-01 2.4659032e-02 
2.4914613e-02 1.0000000e-01 -2.0644837e-03 
2.4820240e-02 8.7647073e-02 2.9926095e-03 
2.1153321e-02 8.1753135e-02 1.3324302e-02 
5.1739132e-03 9.2474468e-02 2.4458753e-02 
1.2275606e-02 8.3771072e-02 2.1778647e-02 
2.4808878e-02 9.7724631e-02 -3.0853739e-03 
1.5363905e-02 8.1626073e-02 1.9721827e-02 
2.3049496e-02 8.1594266e-02 9.6809482e-03 
8.8501927e-03 8.5251011e-02 2.3381062e-02 
2.2419102e-03 9.7594947e-02 2.4899274e-02 
2.0644837e-03 1.0000000e-01 2.4914613e-02 
2.4659032e-02 1.0000000e-01 -4.1148649e-03 
2.4625182e-02 8.3917379e-02 4.3128137e-03 
5.7916334e-03 8.8220611e-02 2.4319889e-02 
2.4550664e-03 9.4600923e-02 2.4879161e-02 
2.4843631e-02 9.1467768e-02 -2.7917784e-03 
2.4621055e-02 9.4733119e-02 -4.3363203e-03 
2.4469184e-02 9.7784646e-02 -5.1243543e-03 
2.4971940e-02 8.7900102e-02 -1.1841713e-03 
2.3677379e-03 9.1939837e-02 2.4887623e-02 
2.4275260e-02 8.1228964e-02 5.9759342e-03 
1.9898314e-02 7.8518152e-02 1.5134633e-02 
1.7085357e-02 7.8655720e-02 1.8250769e-02 
2.4991123e-02 8.4619448e-02 6.6615973e-04 
0.0000000e+00 1.0000000e-01 2.5000000e-02 
2.4235006e-02 1.0000000e-01 -6.1371373e-03 
0.0000000e+00 9.7843826e-02 2.5000000e-02 
2.2122931e-02 7.8222498e-02 1.1643707e-02 
2.4740698e-03 8.9395732e-02 2.4877278e-02 
0.0000000e+00 9.5566235e-02 2.5000000e-02 
9.3570082e-03 8.1344776e-02 2.3182889e-02 
1.2448214e-02 7.9191290e-02 2.1680452e-02 
0.0000000e+00 9.3184374e-02 2.5000000e-02 
2.3932762e-02 9.8172329e-02 -7.2265388e-03 
2.3710296e-02 7.8131437e-02 7.9260264e-03 
2.4899241e-02 8.1014015e-02 2.2422811e-03 
-2.0644837e-03 1.0000000e-01 2.4914613e-02 
2.3645431e-02 1.0000000e-01 -8.1174867e-03 
6.0193450e-03 8.2674198e-02 2.4264531e-02 
2.1688978e-03 8.7013490e-02 2.4905739e-02 
0.0000000e+00 9.0695299e-02 2.5000000e-02 
2.4520343e-02 8.8293687e-02 -4.8736855e-03 
2.3797067e-02 9.5202588e-02 -7.6615680e-03 
2.4155218e-02 9.1312639e-02 -6.4440249e-03 
2.4836415e-02 8.4999561e-02 -2.8552611e-03 
-2.6235715e-03 9.7226858e-02 2.4861956e-02 
-2.2642654e-03 9.4375305e-02 2.4897251e-02 
2.3291463e-02 9.7874433e-02 -9.0833791e-03 
1.8397776e-02 7.5194530e-02 1.6926955e-02 
0.0000000e+00 8.8096164e-02 2.5000000e-02 
2.0963343e-02 7.4941993e-02 1.3621244e-02 
2.6947793e-03 8.3970666e-02 2.4854340e-02 
-2.3677379e-03 9.1939837e-02 2.4887623e-02 
2.4647882e-02 7.7740967e-02 4.1811345e-03 
1.5322183e-02 7.5349152e-02 1.9754257e-02 
2.2894334e-02 1.0000000e-01 -1.0042385e-02 
-4.1148649e-03 1.0000000e-01 2.4659032e-02 
2.4961356e-02 8.1361718e-02 -1.3895073e-03 
2.2898166e-02 7.4826293e-02 1.0033643e-02 
6.1366437e-03 7.9725578e-02 2.4235131e-02 
-2.1040016e-03 8.9658961e-02 2.4911307e-02 
9.1594141e-03 7.7407204e-02 2.3261666e-02 
0.0000000e+00 8.5384265e-02 2.5000000e-02 
-4.9836710e-03 9.8015718e-02 2.4498224e-02 
2.2416934e-02 9.8220736e-02 -1.1067116e-02 
1.2239425e-02 7.5201005e-02 2.1799002e-02 
-4.9394974e-03 9.5018305e-02 2.4507171e-02 
2.4992876e-02 7.8053974e-02 5.9675617e-04 
2.2854887e-02 9.1743849e-02 -1.0131840e-02 
2.3453495e-02 8.8084579e-02 -8.6564207e-03 
2.8088223e-03 8.1084639e-02 2.4841709e-02 
2.4107639e-02 8.4750459e-02 -6.6198022e-03 
2.2222659e-02 9.5297828e-02 -1.1452225e-02 
2.1986844e-02 1.0000000e-01 -1.1898685e-02 
-6.1371373e-03 1.0000000e-01 2.4235006e-02 
2.4201322e-02 7.4569985e-02 6.2686540e-03 
-2.5831347e-03 8.6740211e-02 2.4866190e-02 
2.4581395e-02 8.1442371e-02 -4.5557660e-03 
0.0000000e+00 8.2557067e-02 2.5000000e-02 
2.1477284e-02 9.7931430e-02 -1.2795555e-02 
-7.1285507e-03 9.7833425e-02 2.3962133e-02 
-5.6816055e-03 9.0823285e-02 2.4345828e-02 
5.5229096e-03 7.6726817e-02 2.4382319e-02 
2.4861390e-02 7.4764177e-02 2.6289432e-03 
1.9816129e-02 7.1108252e-02 1.5242081e-02 
2.0929161e-02 1.0000000e-01 -1.3673704e-02 
-8.1174867e-03 1.0000000e-01 2.3645431e-02 
1.6981794e-02 7.1228787e-02 1.8347170e-02 
2.2055898e-02 7.1211405e-02 1.1770190e-02 
-2.6947793e-03 8.3970666e-02 2.4854340e-02 
2.4814686e-02 7.7938423e-02 -3.0383226e-03 
2.9250535e-03 7.8079909e-02 2.4828292e-02 
2.2029774e-02 8.8198848e-02 -1.1819012e-02 
-9.0839490e-03 9.7875684e-02 2.3291240e-02 
0.0000000e+00 7.9612218e-02 2.5000000e-02 
2.0286772e-02 9.8239876e-02 -1.4609819e-02 
2.2752136e-02 8.4679067e-02 -1.0360516e-02 
2.3664927e-02 7.1052141e-02 8.0604730e-03 
-9.0979906e-03 9.5237739e-02 2.3285760e-02 
2.0886319e-02 9.1519527e-02 -1.3739057e-02 
2.3577718e-02 8.1359886e-02 -8.3121136e-03 
2.4980308e-02 7.4638121e-02 -9.9204900e-04 
2.0032182e-02 9.5308959e-02 -1.4956995e-02 
1.9728513e-02 1.0000000e-01 -1.5355318e-02 
-1.0042385e-02 1.0000000e-01 2.2894334e-02 
9.6915625e-03 7.1839385e-02 2.3045035e-02 
-5.5586123e-03 8.4674276e-02 2.4374204e-02 
-2.8088223e-03 8.1084639e-02 2.4841709e-02 
6.3769403e-03 7.3466942e-02 2.4173014e-02 
2.4631735e-02 7.1206868e-02 4.2752372e-03 
2.4176108e-02 7.7937275e-02 -6.3652038e-03 
3.0432311e-03 7.4954465e-02 2.4814084e-02 
1.9078398e-02 9.7959004e-02 -1.6155949e-02 
-1.0976814e-02 9.7908221e-02 2.2461290e-02 
1.2817544e-02 6.9764026e-02 2.1464169e-02 
0.0000000e+00 7.6547593e-02 2.5000000e-02 
2.0954238e-02 6.7803971e-02 1.3635243e-02 
1.8393097e-02 1.0000000e-01 -1.6932039e-02 
-1.1898685e-02 1.0000000e-01 2.1986844e-02 
1.8383319e-02 6.7715764e-02 1.6942658e-02 
2.4983669e-02 7.1238302e-02 9.0346951e-04 
2.1011459e-02 8.4708527e-02 -1.3546904e-02 
1.5331500e-02 6.7814797e-02 1.9747028e-02 
2.4555339e-02 7.4473247e-02 -4.6941820e-03 
1.9789031e-02 8.8146798e-02 -1.5277248e-02 
2.2908419e-02 6.7715570e-02 1.0010213e-02 
-2.9250535e-03 7.8079909e-02 2.4828292e-02 
-1.0031345e-02 8.8124111e-02 2.2899173e-02 
1.7594917e-02 9.8241426e-02 -1.7760037e-02 
2.1929892e-02 8.1229314e-02 -1.2003325e-02 
-1.2938453e-02 9.8348655e-02 2.1391504e-02 
1.8387252e-02 9.1563754e-02 -1.6938388e-02 
-1.1909055e-02 9.1548629e-02 2.1981228e-02 
2.4193047e-02 6.7850672e-02 6.3005169e-03 
1.7260101e-02 9.5289126e-02 -1.8085599e-02 
1.6932039e-02 1.0000000e-01 -1.8393097e-02 
-1.3673704e-02 1.0000000e-01 2.0929161e-02 
2.2881718e-02 7.7831872e-02 -1.0071098e-02 
6.4533125e-03 7.0049003e-02 2.4152739e-02 
-6.1366437e-03 7.9725578e-02 2.4235131e-02 
3.1630837e-03 7.1706571e-02 2.4799090e-02 
-1.3694548e-02 9.5656618e-02 2.0915529e-02 
2.4854567e-02 7.1094073e-02 -2.6926827e-03 
-1.4359560e-02 9.8178446e-02 2.0464677e-02 
0.0000000e+00 7.3361330e-02 2.5000000e-02 
9.5921271e-03 6.7874089e-02 2.3086600e-02 
1.6155949e-02 9.7959004e-02 -1.9078398e-02 
-9.0142628e-03 8.2251430e-02 2.3318298e-02 
2.3524802e-02 7.4635535e-02 -8.4607126e-03 
2.4869917e-02 6.7758113e-02 2.5470073e-03 
-3.0432311e-03 7.4954465e-02 2.4814084e-02 
-1.5355318e-02 1.0000000e-01 1.9728513e-02 
1.5355318e-02 1.0000000e-01 -1.9728513e-02 
1.8464217e-02 8.5018806e-02 -1.6854456e-02 
1.9801265e-02 6.4310998e-02 1.5261387e-02 
1.6993919e-02 6.4464442e-02 1.8335940e-02 
-1.1952962e-02 8.4685706e-02 2.1957384e-02 
-1.3646130e-02 8.8126481e-02 2.0947151e-02 
1.6951121e-02 8.8094242e-02 -1.8375512e-02 
1.9651385e-02 8.1426345e-02 -1.5453900e-02 
1.3146911e-02 6.5091483e-02 2.1264024e-02 
-6.2559312e-03 7.6657116e-02 2.4204614e-02 
2.2053393e-02 6.4207017e-02 1.1774883e-02 
-1.6155949e-02 9.7959004e-02 1.9078398e-02 
[...]
POINT_DATA 1374
FIELD FieldData 4
DISPLACEMENT 3 1374  float
0.0000000e+00 0.0000000e+00 0.0000000e+00 
0.0000000e+00 0.0000000e+00 0.0000000e+00 
0.0000000e+00 0.0000000e+00 0.0000000e+00 
-1.1000030e-03 3.4813353e-04 -7.3389983e-04 
-1.1897126e-03 3.3913759e-04 -9.2947652e-04 
-1.0734682e-03 3.5708267e-04 -6.2131265e-04 
-9.5728558e-04 3.6417495e-04 -8.6655957e-04 
0.0000000e+00 0.0000000e+00 0.0000000e+00 
0.0000000e+00 0.0000000e+00 0.0000000e+00 
-1.0241368e-03 1.2361055e-04 -5.6346506e-04 
-7.5465761e-04 1.3903530e-04 -5.2665203e-04 
-1.0296556e-03 3.1044838e-04 -1.0916234e-03 
-1.3755811e-03 3.2521290e-04 -6.5503857e-04 
0.0000000e+00 0.0000000e+00 0.0000000e+00 
0.0000000e+00 0.0000000e+00 0.0000000e+00 
-7.8479666e-04 3.1694473e-04 -9.7533362e-04 
-1.2095643e-03 3.5404510e-04 -4.6976790e-04 
-7.7798520e-04 1.4419213e-04 -2.6602819e-04 
-7.4803457e-04 5.9505845e-05 -7.2115281e-04 
0.0000000e+00 0.0000000e+00 0.0000000e+00 
0.0000000e+00 0.0000000e+00 0.0000000e+00 
3.6867935e-04 1.9647057e-04 5.7742785e-04 
4.5838591e-04 2.9671419e-04 8.9407072e-04 
3.1954158e-04 1.3065604e-04 3.7100440e-04 
-8.1664725e-04 2.8769509e-04 -1.2093819e-03 
-1.4381682e-03 2.7812540e-04 -4.2562984e-04 
0.0000000e+00 0.0000000e+00 0.0000000e+00 
0.0000000e+00 0.0000000e+00 0.0000000e+00 
-6.1355910e-04 3.3034969e-04 -1.0922696e-03 
-1.2650368e-03 3.2522503e-04 -2.6075752e-04 
-4.5678992e-04 1.4190751e-04 -4.9976533e-04 
2.7866894e-04 2.1249999e-04 8.8590430e-04 
-5.4973009e-04 1.4394642e-04 -8.5687687e-05 
5.1918277e-04 8.0830367e-05 3.1622438e-04 
3.9795006e-04 -5.1484218e-05 5.8578874e-04 
6.6082063e-04 2.7215330e-05 1.0380711e-03 
0.0000000e+00 0.0000000e+00 0.0000000e+00 
0.0000000e+00 0.0000000e+00 0.0000000e+00 
4.7492000e-04 1.6960683e-05 1.0781393e-03 
-5.9995503e-04 2.6008108e-04 -1.3242493e-03 
-1.4876212e-03 2.3977621e-04 -1.6446068e-04 
5.8707985e-04 -1.2530186e-04 4.7875015e-04 
0.0000000e+00 0.0000000e+00 0.0000000e+00 
0.0000000e+00 0.0000000e+00 0.0000000e+00 
6.1091589e-04 -1.6944953e-04 8.3748449e-04 
5.3175242e-04 3.2488475e-05 2.0400669e-04 
-4.3247431e-04 6.0333248e-05 -7.6356559e-04 
-2.5502467e-04 1.3970556e-04 3.5800425e-05 
-6.5034481e-05 6.4291249e-05 6.0236012e-04 
-4.9027370e-04 2.4700770e-04 -1.3405599e-03 
5.3253915e-04 -2.4341593e-04 5.3705601e-04 
-1.5161803e-03 1.6653276e-04 -4.0343057e-05 
2.5303938e-04 -4.2842858e-05 1.1205352e-03 
6.4569933e-04 -1.5173911e-04 3.3667215e-04 
8.3541236e-04 -1.6916123e-04 1.4229853e-03 
0.0000000e+00 0.0000000e+00 0.0000000e+00 
0.0000000e+00 0.0000000e+00 0.0000000e+00 
-1.3863781e-03 2.2508306e-04 7.8886733e-05 
9.2820771e-04 -2.6646949e-04 4.3864507e-04 
-4.2733061e-04 3.7089059e-05 -1.6166210e-03 
-3.7876036e-04 1.3555167e-04 5.3369171e-05 
6.1346899e-04 -1.2276881e-05 1.0414368e-04 
7.8722683e-04 -3.1638652e-04 1.1124219e-03 
0.0000000e+00 0.0000000e+00 0.0000000e+00 
0.0000000e+00 0.0000000e+00 0.0000000e+00 
4.0752953e-04 -2.1732967e-04 1.8210687e-04 
1.1188743e-03 -3.2348838e-04 1.0098031e-03 
-1.1092578e-04 1.4899927e-04 7.6234015e-04 
7.2690943e-04 -2.0249237e-04 1.8843410e-03 
-1.4482439e-03 2.3208016e-04 2.1007568e-04 
1.0268395e-03 -2.9636407e-04 1.8420928e-03 
1.2341061e-03 -3.4733425e-04 7.2240311e-04 
2.9870891e-04 -1.7316679e-04 1.6562102e-03 
-1.9522110e-04 1.8192269e-04 -1.4670568e-03 
0.0000000e+00 0.0000000e+00 0.0000000e+00 
0.0000000e+00 0.0000000e+00 0.0000000e+00 
1.5436471e-03 -2.6810629e-04 4.0095201e-04 
1.7355173e-04 -3.0928968e-05 2.0839353e-03 
-2.2187934e-04 -6.5483902e-05 -7.1931386e-04 
6.4874539e-04 5.8752372e-05 -1.6758138e-05 
-2.4779537e-04 2.0162159e-04 7.9703685e-05 
-1.4401738e-03 2.7484421e-04 3.3389867e-04 
7.3858711e-04 -1.6891400e-04 5.0261249e-05 
-1.8995685e-04 5.2814557e-06 5.0708617e-04 
1.6981637e-03 -3.5350857e-04 5.7582714e-04 
1.0283759e-03 -4.9976911e-04 1.0703177e-03 
8.9243468e-04 -3.9987441e-04 1.4129245e-03 
9.1712631e-04 -3.3322387e-04 1.3673976e-04 
0.0000000e+00 0.0000000e+00 0.0000000e+00 
0.0000000e+00 0.0000000e+00 0.0000000e+00 
-4.4220662e-05 2.0967377e-04 -1.3519529e-03 
1.6416360e-03 -4.1431288e-04 1.1018596e-03 
-1.1738163e-04 -1.1342453e-04 1.2002082e-03 
-9.2016147e-05 -6.3171596e-05 -1.1562333e-03 
5.3461298e-04 -2.9503723e-04 2.1793719e-03 
7.2062877e-04 -3.7470987e-04 1.9735610e-03 
-1.6076930e-04 2.1878049e-04 5.3642440e-04 
-1.2448952e-03 3.2205461e-04 4.0261363e-04 
1.7626067e-03 -4.3267125e-04 7.9925370e-04 
1.4075164e-03 -4.0969477e-04 2.5100447e-04 
0.0000000e+00 0.0000000e+00 0.0000000e+00 
0.0000000e+00 0.0000000e+00 0.0000000e+00 
3.4644188e-05 -3.0775441e-04 1.3597521e-03 
-1.1579063e-04 -1.3063605e-04 2.0584697e-03 
-2.4716201e-04 2.3086200e-06 9.7117870e-04 
4.3715729e-04 -1.4428444e-04 -4.6196245e-05 
-1.0501888e-03 4.3704629e-05 4.0921243e-04 
3.9127900e-04 4.4043725e-05 -7.4781987e-05 
1.0382727e-03 -2.8623524e-04 -5.3519212e-05 
1.3076226e-04 1.3115803e-04 -1.6054973e-03 
-3.3867556e-05 5.2573751e-06 -5.2350346e-04 
-1.4338089e-03 3.0271683e-04 5.8832584e-04 
1.6479912e-03 -4.1308513e-04 1.8621400e-03 
-2.8697183e-04 -1.1358319e-04 1.4805180e-03 
2.4345634e-03 -3.3042525e-04 1.8898051e-03 
-1.3982016e-04 -2.7502165e-04 1.7316039e-03 
-2.3149351e-04 6.0995357e-05 6.7367003e-04 
1.8200928e-03 -4.6156373e-04 4.7645310e-04 
1.0447857e-03 -4.6781561e-04 1.8307659e-03 
0.0000000e+00 0.0000000e+00 0.0000000e+00 
0.0000000e+00 0.0000000e+00 0.0000000e+00 
1.7776771e-03 -3.5850258e-04 -1.7765866e-05 
2.0423676e-03 -4.6451169e-04 1.1918674e-03 
1.0839444e-04 -3.6857341e-04 1.8354537e-03 
-3.7026886e-04 5.3506286e-05 1.6396822e-03 
4.2915886e-04 -4.1701939e-04 2.1442219e-03 
-3.1258696e-04 -1.9211524e-04 1.8114201e-03 
2.4498624e-04 2.7546729e-04 -1.3046914e-03 
-1.1374546e-03 3.2345371e-04 5.8235251e-04 
6.8413396e-04 -4.7283657e-04 1.9669982e-03 
1.0315969e-04 2.5225650e-05 -8.4448786e-04 
1.5751232e-03 -4.8815558e-04 1.3885883e-04 
7.2178891e-04 1.9345082e-04 -2.8191775e-04 
7.8016915e-04 -8.4340514e-05 -2.9416507e-04 
-2.2705949e-04 -3.9176922e-04 1.4047087e-03 
1.0669780e-03 -2.7652513e-04 -2.6303920e-04 
-1.0198844e-03 4.4543282e-05 5.5864250e-04 
0.0000000e+00 0.0000000e+00 0.0000000e+00 
0.0000000e+00 0.0000000e+00 0.0000000e+00 
2.0328686e-03 -4.8788416e-04 7.1552274e-04 
-5.2304455e-04 -1.1103095e-04 2.1095667e-03 
1.7973618e-03 -3.4110487e-04 -2.6412599e-04 
-3.4408367e-04 -3.1929446e-04 1.9503735e-03 
-1.3070076e-03 3.2540594e-04 8.0530276e-04 
3.9169978e-04 2.5678132e-04 -1.4385206e-03 
-3.2739146e-04 -1.1816746e-05 7.2113139e-04 
9.8135650e-05 -4.1211341e-04 2.2977397e-03 
2.6416434e-03 -4.0170737e-04 4.1975139e-04 
2.3382478e-03 -4.2228409e-04 2.1138897e-03 
0.0000000e+00 0.0000000e+00 0.0000000e+00 
0.0000000e+00 0.0000000e+00 0.0000000e+00 
1.5903370e-03 -4.7253474e-04 2.0837032e-03 
2.5464012e-03 -4.4445565e-04 1.6753540e-03 
-5.0574582e-04 -2.6386217e-04 1.7979934e-03 
2.0323438e-03 -4.4012850e-04 -1.7291779e-04 
-7.4100375e-05 -3.2148039e-04 2.5601776e-03 
9.9772855e-04 -2.9607652e-05 -5.3280476e-04 
4.4561096e-04 2.6445856e-04 -1.2616364e-03 
-3.7622440e-04 -4.0600621e-04 2.0493048e-03 
-1.0545508e-03 3.8674023e-04 7.7204627e-04 
8.1469957e-04 -2.5158419e-04 -3.6668140e-04 
2.1595589e-03 -4.9231906e-04 9.8987878e-04 
1.5715476e-04 1.1448104e-04 -6.2321499e-04 
5.3372746e-04 1.6436772e-04 -3.3731558e-04 
1.5975190e-03 -3.5354050e-04 -5.2825350e-04 
2.5134659e-03 -4.4342488e-04 2.4159179e-05 
-7.2048442e-04 1.7491639e-04 5.4017280e-04 
0.0000000e+00 0.0000000e+00 0.0000000e+00 
0.0000000e+00 0.0000000e+00 0.0000000e+00 
6.2481710e-04 -5.0576235e-04 2.5491398e-03 
-6.6498318e-04 -2.5251869e-04 1.6364927e-03 
-5.9159496e-04 -3.8312498e-04 2.0437797e-03 
2.4910190e-04 -4.7602144e-04 2.5765188e-03 
2.7431727e-03 -4.3597445e-04 6.3514832e-04 
1.9501125e-03 -4.4243361e-04 -4.6887240e-04 
-3.7157995e-05 -4.3258115e-04 2.8245794e-03 
-1.1703763e-03 3.5662536e-04 9.9692354e-04 
5.9249601e-04 2.4714210e-04 -1.3350492e-03 
8.0636883e-04 -5.2644621e-04 2.0309710e-03 
-3.4298762e-04 -4.8763814e-04 2.1722426e-03 
2.4210496e-03 -4.7428516e-04 1.9083525e-03 
0.0000000e+00 0.0000000e+00 0.0000000e+00 
0.0000000e+00 0.0000000e+00 0.0000000e+00 
2.1066184e-03 -4.6325513e-04 2.2724206e-03 
2.7926050e-03 -4.4883427e-04 2.3821629e-04 
7.4373267e-04 -2.0354270e-04 -5.2999496e-04 
1.3450879e-03 -4.9224752e-04 2.1733856e-03 
2.3094486e-03 -4.7461980e-04 -3.6761782e-04 
8.2085578e-04 5.7656835e-06 -6.8461214e-04 
2.5832374e-03 -4.5900274e-04 1.4285666e-03 
-6.4964523e-04 -4.8516016e-04 2.1741113e-03 
-8.1618706e-04 -2.5875883e-05 1.3452263e-03 
-9.1511320e-04 3.5856784e-04 9.1688480e-04 
1.2084944e-03 -3.5530963e-04 -6.6338218e-04 
5.3941557e-04 1.8979507e-04 -9.6448301e-04 
3.9496375e-04 1.9209554e-04 -4.1895616e-04 
-6.9520343e-04 2.1409726e-04 1.0060149e-03 
2.7949722e-03 -4.1699156e-04 9.5721835e-04 
-8.2242704e-04 8.8023924e-05 8.2772283e-04 
0.0000000e+00 0.0000000e+00 0.0000000e+00 
0.0000000e+00 0.0000000e+00 0.0000000e+00 
1.7931024e-03 -4.3757091e-04 -7.6937862e-04 
3.2054220e-04 -5.0770870e-04 2.8808150e-03 
-8.7178650e-04 -4.5643668e-04 1.9206289e-03 
-6.3067346e-05 -4.9109169e-04 2.7850831e-03 
6.5066677e-04 -1.4220968e-04 -1.1334009e-03 
2.5036798e-03 -4.7959751e-04 -1.7495535e-04 
6.6321704e-04 1.7447985e-04 -9.7544683e-04 
-4.0274637e-04 -4.7363705e-04 2.9070850e-03 
6.2980241e-04 -5.1760761e-04 2.6313264e-03 
-1.0017864e-03 3.4901735e-04 1.1734795e-03 
-1.0752197e-03 -3.3014116e-04 1.8994908e-03 
2.3403314e-03 -4.5986701e-04 -8.2022650e-04 
2.8330241e-03 -4.2736140e-04 4.7475667e-04 
-6.8087352e-04 -5.3253432e-04 2.2450809e-03 
0.0000000e+00 0.0000000e+00 0.0000000e+00 
0.0000000e+00 0.0000000e+00 0.0000000e+00 
8.4793038e-04 -1.7317038e-04 -8.5462083e-04 
2.8136787e-03 -4.7074741e-04 2.4825975e-03 
1.8882803e-03 -4.2938517e-04 2.4064430e-03 
-1.1354702e-03 -1.8678738e-04 1.6285749e-03 
-9.8130223e-04 4.0160230e-05 1.2326620e-03 
7.2122260e-04 1.5079931e-05 -8.7290280e-04 
1.1254821e-03 -3.4045722e-04 -9.2757662e-04 
1.1935327e-03 -4.7117032e-04 2.5866725e-03 
-9.9116063e-04 -5.7180895e-04 1.9938585e-03 
2.9792790e-03 -4.1850851e-04 1.8791435e-03 
8.8225957e-04 2.2578928e-04 -1.0621391e-03 
-7.7683717e-04 3.5570841e-04 1.0698640e-03 
4.7600636e-04 2.6514265e-04 -7.2797068e-04 
-1.0138907e-03 3.5543763e-04 1.1553768e-03 
2.4887372e-03 -4.5978808e-04 3.5071691e-05 
2.7105187e-03 -4.5604695e-04 -7.3069584e-04 
3.0284773e-03 -3.6376924e-04 1.2603622e-03 
1.5714698e-03 -4.3404044e-04 -1.0741042e-03 
0.0000000e+00 0.0000000e+00 0.0000000e+00 
0.0000000e+00 0.0000000e+00 0.0000000e+00 
-6.8266956e-05 -4.9593829e-04 3.0432229e-03 
-6.8196421e-04 1.3281430e-04 9.7117585e-04 
-4.3623697e-04 -4.7022337e-04 2.6256547e-03 
-1.2664377e-03 -4.9027504e-04 2.1461241e-03 
3.9941695e-04 6.7014495e-05 -4.3544380e-04 
-6.6679297e-04 3.6812757e-04 1.0620182e-03 
8.2855084e-04 2.7509924e-04 -8.2574476e-04 
2.2568726e-03 -4.3545975e-04 -1.2504393e-03 
3.2524834e-04 -5.1078957e-04 3.1404169e-03 
3.2331320e-03 -3.5947436e-04 7.9987972e-04 
-7.9450745e-04 -4.9231725e-04 2.7084805e-03 
-1.1207662e-03 -4.9908774e-04 2.7303263e-03 
-1.3402923e-03 -4.0908708e-04 1.7310035e-03 
0.0000000e+00 0.0000000e+00 0.0000000e+00 
0.0000000e+00 0.0000000e+00 0.0000000e+00 
2.2888645e-03 -4.5959407e-04 -3.8084821e-04 
7.1143848e-04 -4.6025767e-04 2.9111388e-03 
6.5180293e-04 -2.1649721e-04 -8.9789130e-04 
-1.3538111e-03 -1.5625564e-04 1.5181131e-03 
4.9057638e-04 -1.3755383e-05 -8.6191023e-04 
-9.8971429e-04 2.8503424e-05 9.9516287e-04 
2.7053284e-03 -3.9152053e-04 2.7311355e-04 
2.9785756e-03 -4.0529264e-04 -1.3417884e-03 
1.1130922e-03 2.5832397e-04 -9.1670814e-04 
-7.2103459e-04 3.3045467e-04 1.3931424e-03 
1.9494805e-03 -3.4849532e-04 2.1477535e-03 
9.7676786e-04 -3.7380660e-04 -1.1694310e-03 
-9.7199489e-04 2.6933642e-04 8.6519122e-04 
1.9095530e-04 1.6402082e-04 -5.0788000e-04 
2.1416019e-03 -2.6940010e-04 1.6676298e-03 
1.5383662e-03 -4.4094809e-04 -1.4862319e-03 
0.0000000e+00 0.0000000e+00 0.0000000e+00 
0.0000000e+00 0.0000000e+00 0.0000000e+00 
1.5284715e-03 -3.7719973e-04 2.5033746e-03 
-1.7259329e-03 -4.9833080e-04 3.3043977e-03 
2.5347017e-03 -2.7791117e-04 1.3033142e-03 
-5.1211234e-04 -4.2602044e-04 3.0619358e-03 
-1.4148744e-04 -4.6192924e-04 2.9572169e-03 
8.4061472e-04 1.9928773e-05 -5.7973742e-04 
1.0079043e-03 2.9156142e-04 -7.0730789e-04 
1.6383155e-03 -5.1462039e-04 -1.3334199e-03 
-5.6319998e-04 2.9151785e-04 1.3041577e-03 
-8.0180622e-04 -4.7693320e-04 2.2948883e-03 
2.9651218e-03 -3.8082895e-04 -2.3227750e-04 
-5.1770656e-04 4.0246421e-05 1.0642367e-03 
2.3554924e-03 -3.9063609e-04 -8.7940070e-04 
1.0766825e-03 -4.0799307e-04 2.8441125e-03 
3.2063592e-03 -2.9252446e-04 1.0143375e-03 
-1.9400412e-03 -4.3216828e-04 2.8111986e-03 
0.0000000e+00 0.0000000e+00 0.0000000e+00 
0.0000000e+00 0.0000000e+00 0.0000000e+00 
-1.3363486e-03 -5.1708560e-04 2.8509721e-03 
-2.1395611e-03 -2.1762960e-04 2.2817079e-03 
2.5295389e-03 -4.5514310e-04 -1.6817923e-03 
-1.6437965e-03 -7.1342794e-05 1.5051825e-03 
4.6677334e-04 -2.3478344e-04 -9.9456822e-04 
1.6101243e-04 -4.3648772e-04 2.8488105e-03 
4.1042946e-04 -2.2854922e-05 -1.0940591e-03 
-1.1687796e-03 9.6560134e-06 9.1700972e-04 
1.2827527e-03 2.7924404e-04 -7.5836742e-04 
-4.9650943e-04 2.7657437e-04 1.4429153e-03 
3.1883412e-03 -2.8463572e-04 5.0166645e-04 
-5.3934916e-04 1.0715763e-04 3.6654784e-04 
-2.1760452e-03 -3.9461855e-04 2.5923091e-03 
0.0000000e+00 0.0000000e+00 0.0000000e+00 
0.0000000e+00 0.0000000e+00 0.0000000e+00 
9.3060522e-04 -5.3922663e-04 -1.2664482e-03 
2.9580721e-03 -3.5424324e-04 -7.2428526e-04 
2.1322363e-03 -2.3241471e-04 1.9233158e-03 
2.5342151e-03 -4.1129687e-04 -1.4221524e-03 
8.9640991e-04 4.9165741e-05 -4.8241179e-04 
1.1296932e-03 3.1089858e-04 -5.5822934e-04 
8.0317096e-04 -4.1044320e-04 -1.4801393e-03 
3.0326741e-03 -3.0493943e-04 5.9701440e-05 
-3.1587787e-04 2.7637579e-04 1.2711675e-03 
1.6992477e-03 -2.8657864e-04 2.2579820e-03 
2.8065671e-03 -1.4094733e-04 1.7477043e-03 
-2.1969945e-04 6.7951252e-05 5.9575075e-04 
0.0000000e+00 0.0000000e+00 0.0000000e+00 
0.0000000e+00 0.0000000e+00 0.0000000e+00 
-5.4438174e-04 -3.9255901e-04 3.2569452e-03 
-1.7485330e-03 -5.0055090e-04 2.5990012e-03 
-7.7023992e-04 -4.7398743e-04 2.3560685e-03 
2.6669295e-04 1.7922520e-04 -1.3647628e-03 
1.6068637e-03 -5.1578658e-04 -2.0397396e-03 
1.8242658e-03 -5.2287703e-04 -1.7426070e-03 
1.2233177e-03 -3.2030791e-04 2.5195589e-03 
2.6865259e-03 -2.0391776e-04 1.1231722e-03 
-1.2322020e-03 -5.0722877e-04 2.8028854e-03 
-2.5936772e-04 -3.7978438e-04 3.2714065e-03 
5.0912378e-04 -3.5635341e-04 2.8408279e-03 
1.3941085e-03 2.7656247e-04 -5.5156188e-04 
-1.4504949e-03 2.6943771e-05 7.8918913e-04 
-1.9673510e-03 -2.2799973e-04 1.6461026e-03 
-1.0205372e-03 -1.8844778e-04 7.6660042e-04 
-7.7516236e-04 1.7616728e-04 3.3610518e-04 
-2.0905469e-04 9.6536140e-05 1.5680097e-03 
5.1967305e-04 -3.7605487e-04 -1.4540722e-03 
-2.5995369e-03 -3.5222463e-04 2.4117024e-03 
0.0000000e+00 0.0000000e+00 0.0000000e+00 
0.0000000e+00 0.0000000e+00 0.0000000e+00 
3.3793484e-03 -1.9630154e-04 7.7260361e-04 
2.8837570e-03 -3.2936622e-04 -4.0477599e-04 
2.9359092e-03 -3.4267359e-04 -1.2935870e-03 
-1.1588389e-04 -5.6814508e-05 5.2694563e-04 
-2.0190161e-03 -4.3491827e-04 2.1811402e-03 
1.2086980e-03 3.0368011e-04 -3.5952919e-04 
8.0785283e-04 5.1781171e-05 -2.5739573e-04 
9.4519474e-04 -5.7749299e-04 -1.6873784e-03 
6.5115732e-05 2.1348154e-04 -1.0602857e-03 
2.3627805e-03 -4.8035581e-04 -1.9247960e-03 
2.0606290e-04 -2.5918495e-04 -1.0318008e-03 
0.0000000e+00 0.0000000e+00 0.0000000e+00 
0.0000000e+00 0.0000000e+00 0.0000000e+00 
-2.4102221e-05 1.6204876e-04 1.3231324e-03 
-5.0913502e-05 -1.3507210e-04 1.2237061e-03 
7.0364753e-05 7.8661607e-05 -1.3287553e-03 
3.3252398e-03 -1.7901126e-04 2.5827484e-04 
-1.8925581e-03 5.8494821e-05 7.0016953e-04 
5.3767744e-04 -5.5083842e-04 -1.4619644e-03 
1.4927472e-03 2.5496195e-04 -2.9322240e-04 
-4.1877662e-05 2.3436981e-04 -5.4403144e-04 
-1.5832608e-03 -1.2254363e-04 7.7025214e-04 
2.9166217e-03 -5.4455424e-05 2.1577361e-03 
-8.6610822e-04 6.7355373e-05 2.2281044e-04 
7.2278315e-05 -1.0172354e-04 -1.0534513e-03 
0.0000000e+00 0.0000000e+00 0.0000000e+00 
0.0000000e+00 0.0000000e+00 0.0000000e+00 
-1.6970938e-03 -2.5915791e-04 1.0771913e-03 
1.5939720e-03 -5.5878545e-04 -2.2392541e-03 
-4.3461663e-05 1.6518758e-04 -1.2684743e-03 
2.3768500e-03 -1.0909706e-04 2.4771963e-03 
1.1626249e-04 1.0059469e-04 1.3670068e-03 
2.9143433e-03 -2.8010472e-04 -9.7471161e-04 
-1.7131622e-03 -4.6652113e-04 1.8612063e-03 
8.6756574e-04 -1.6963437e-05 -1.2870067e-04 
-9.4055082e-04 -3.6456829e-04 3.2509381e-03 
-1.5990146e-03 -5.0891540e-04 2.1780592e-03 
2.4219926e-03 -4.1856145e-04 -1.6291962e-03 
-2.1937522e-03 -3.4003292e-04 1.6256553e-03 
-5.8613985e-04 -3.3717809e-04 3.4759738e-03 
3.7696229e-03 -1.6901734e-04 -2.6652328e-04 
1.5320189e-03 2.4710505e-04 -1.7556475e-04 
2.6946494e-05 -1.9680244e-04 6.7123893e-04 
1.5900825e-03 -1.9869421e-04 2.4785819e-03 
3.3175480e-03 -2.1309603e-05 1.7105167e-03 
-1.1654029e-03 -4.5937844e-04 2.6314908e-03 
-5.1588548e-05 -7.2766111e-06 -1.0122027e-03 
3.5298613e-04 -4.7436738e-04 -1.7155507e-03 
7.9312857e-05 -2.7202896e-04 -1.1182697e-03 
0.0000000e+00 0.0000000e+00 0.0000000e+00 
0.0000000e+00 0.0000000e+00 0.0000000e+00 
-1.9950075e-04 -2.8784614e-04 3.3647206e-03 
-1.4203446e-04 2.8903881e-04 -1.2912042e-03 
-1.5291652e-03 -4.8784757e-04 2.5661599e-03 
1.3631502e-03 -5.5810978e-04 -1.6077644e-03 
-2.4760482e-03 -4.1554522e-04 1.9344795e-03 
-2.3643905e-03 1.7047771e-04 4.7322694e-04 
1.4519370e-03 2.3364868e-04 -3.9158087e-05 
3.4800978e-04 -8.6569298e-06 1.5360962e-03 
-1.0367119e-03 2.1223049e-04 1.4976080e-04 
1.5837334e-03 -5.0511444e-04 -3.0601928e-03 
-1.6180592e-04 7.4271891e-05 -1.4234289e-03 
9.3029119e-04 -1.3706574e-05 -7.1305672e-06 
-1.7347363e-03 -5.5955574e-05 4.9073057e-04 
1.6321207e-04 -2.6102882e-04 2.8762841e-03 
-3.0322955e-05 -1.8210331e-04 -1.0847555e-03 
0.0000000e+00 0.0000000e+00 0.0000000e+00 
0.0000000e+00 0.0000000e+00 0.0000000e+00 
6.8640179e-04 -6.7700708e-04 -1.8469815e-03 
3.3581757e-03 -4.2502092e-05 1.1972837e-03 
1.4767027e-04 -3.7687697e-04 -1.7933953e-03 
-2.0927787e-04 2.4266096e-04 -1.0571767e-03 
7.8995258e-04 -1.8788960e-04 3.1590851e-03 
1.6278247e-03 2.1642390e-04 8.6745968e-05 
-1.2674395e-04 -1.0466114e-04 -1.4768030e-03 
4.4483354e-04 2.1151562e-04 1.3170339e-03 
-1.4706411e-03 -2.4111861e-04 6.2388048e-04 
3.2422086e-03 -1.6982848e-04 -7.6018588e-04 
3.3889935e-04 -5.9051270e-04 -1.7292370e-03 
-2.0986437e-03 -4.6174604e-04 1.7362124e-03 
0.0000000e+00 0.0000000e+00 0.0000000e+00 
0.0000000e+00 0.0000000e+00 0.0000000e+00 
2.8804722e-03 -2.9627347e-04 -1.6199606e-03 
3.6202330e-04 8.8747044e-11 8.8628777e-04 
-2.6934033e-05 -3.4538269e-04 -1.2273667e-03 
5.5873318e-04 2.4088159e-04 1.3315263e-03 
1.5602368e-03 2.9246957e-04 2.1718998e-04 
5.6306925e-04 8.4265419e-05 9.2404596e-05 
2.0382768e-03 -4.8096443e-04 -1.9938247e-03 
-2.0632357e-03 -3.3113422e-04 1.0710639e-03 
-1.5679329e-03 3.4618942e-04 1.1111165e-05 
-1.7684135e-03 1.1166863e-04 1.4876977e-04 
0.0000000e+00 0.0000000e+00 0.0000000e+00 
0.0000000e+00 0.0000000e+00 0.0000000e+00 
3.1538506e-03 -6.1013587e-05 8.5948181e-05 
-2.7960751e-04 -5.4715307e-05 -1.3257592e-03 
-2.2889299e-03 -1.8412164e-05 3.2306000e-04 
-1.2413645e-04 -2.6934812e-04 -9.6923584e-04 
1.0022834e-04 -5.0902046e-04 -1.8841358e-03 
5.7332066e-04 3.1704747e-04 1.1144545e-03 
1.3202956e-03 3.7455568e-04 3.0630821e-04 
-2.1279701e-03 -4.7860961e-04 1.9853562e-03 
-2.6646906e-03 -3.8128160e-04 1.5865639e-03 
0.0000000e+00 0.0000000e+00 0.0000000e+00 
0.0000000e+00 0.0000000e+00 0.0000000e+00 
-2.0487608e-04 1.1098006e-04 -5.6229049e-04 
3.5352877e-03 -3.7811882e-05 5.9738645e-04 
3.9711388e-04 9.9580102e-05 7.2579482e-04 
7.8882271e-04 1.5668114e-04 2.4731050e-04 
7.6594489e-04 2.8487612e-04 1.2607061e-03 
1.5022373e-03 3.3772265e-04 4.7730986e-04 
1.3085841e-03 -8.9451401e-05 2.9162022e-03 